60
Lattice="15.0 0.0 0.0 0.0 15.0 0.0 0.0 0.0 15.0" Properties=species:S:1:pos:R:3 name=C-2158988-7926-291 pressure=-0.00304385600255244 energy=-453.904342332994 spacegroup=Ih times_found=1 pbc="T T T"
C       10.09510500       6.77563500       5.19745500
C        5.19745500      10.09510500       6.77563500
C        6.77563500       5.19745500      10.09510500
C       10.09510500       8.22436500       9.80254500
C        4.90489500       8.22436500       5.19745500
C        4.90489500       6.77563500       9.80254500
C        5.19745500       4.90489500       8.22436500
C        9.80254500       4.90489500       6.77563500
C        9.80254500      10.09510500       8.22436500
C        6.77563500       9.80254500       4.90489500
C        8.22436500       9.80254500      10.09510500
C        8.22436500       5.19745500       4.90489500
C        4.90489500       6.77563500       5.19745500
C        9.80254500      10.09510500       6.77563500
C        8.22436500       5.19745500      10.09510500
C        4.90489500       8.22436500       9.80254500
C       10.09510500       8.22436500       5.19745500
C       10.09510500       6.77563500       9.80254500
C        9.80254500       4.90489500       8.22436500
C        5.19745500       4.90489500       6.77563500
C        5.19745500      10.09510500       8.22436500
C        8.22436500       9.80254500       4.90489500
C        6.77563500       9.80254500      10.09510500
C        6.77563500       5.19745500       4.90489500
C        6.07695000       8.67205500      10.52692500
C       10.52692500       6.07695000       8.67205500
C        8.67205500      10.52692500       6.07695000
C        6.07695000       6.32794500       4.47307500
C        8.92305000       6.32794500      10.52692500
C        8.92305000       8.67205500       4.47307500
C       10.52692500       8.92305000       6.32794500
C        4.47307500       8.92305000       8.67205500
C        4.47307500       6.07695000       6.32794500
C        8.67205500       4.47307500       8.92305000
C        6.32794500       4.47307500       6.07695000
C        6.32794500      10.52692500       8.92305000
C        8.92305000       8.67205500      10.52692500
C        4.47307500       6.07695000       8.67205500
C        6.32794500      10.52692500       6.07695000
C        8.92305000       6.32794500       4.47307500
C        6.07695000       6.32794500      10.52692500
C        6.07695000       8.67205500       4.47307500
C        4.47307500       8.92305000       6.32794500
C       10.52692500       8.92305000       8.67205500
C       10.52692500       6.07695000       6.32794500
C        6.32794500       4.47307500       8.92305000
C        8.67205500       4.47307500       6.07695000
C        8.67205500      10.52692500       8.92305000
C       10.97463000       6.80131500       7.50000000
C        7.50000000      10.97463000       6.80131500
C        6.80131500       7.50000000      10.97463000
C       10.97463000       8.19868500       7.50000000
C        4.02537000       8.19868500       7.50000000
C        4.02537000       6.80131500       7.50000000
C        7.50000000       4.02537000       8.19868500
C        7.50000000       4.02537000       6.80131500
C        7.50000000      10.97463000       8.19868500
C        8.19868500       7.50000000       4.02537000
C        6.80131500       7.50000000       4.02537000
C        8.19868500       7.50000000      10.97463000
